     447
 i =     2000, time =     2000.000, E =     -8960.9589133224
Fe1 0.3361958189 4.2987197217 18.0406969537
Fe1 10.4594157074 1.2907465266 22.5445665023
Fe1 2.8495093915 2.9243688824 13.2764270410
Fe2 2.7511825610 2.9098444728 16.5247059513
Fe2 0.4071965828 4.2633804989 21.0009646512
Fe2 10.4911986331 1.3001946263 25.5237842026
Fe1 0.4194455190 4.3600382999 13.8579363539
Fe1 10.2835663722 1.3718694693 18.6349035613
Fe1 2.8773310973 2.9437472782 23.4553497261
Fe2 10.4667315697 1.5149286237 15.5898499867
Fe2 2.8265291302 2.9219244848 20.3284643832
Fe2 0.2169578651 4.2322932293 25.1580449913
Fe1 5.4835722653 4.2903717833 18.0880524385
Fe1 5.2856744051 1.2687073315 22.6100554331
Fe1 8.0260471704 2.8477540897 13.4065537201
Fe2 7.8803970092 2.8153586684 16.4765052226
Fe2 5.3737603777 4.1212004008 21.0434171674
Fe2 5.3647697887 1.3280147613 25.7540255423
Fe1 5.4150512595 4.1501880093 13.8676745194
Fe1 5.3792714925 1.3188877356 18.8316737108
Fe1 7.8610549603 2.6948464027 23.4680779837
Fe2 5.2500260694 1.4449710579 15.7002086414
Fe2 7.8745553723 2.8372395882 20.4632701706
Fe2 5.4417222723 4.2357152084 25.0451763113
Fe1 -2.2257072320 8.6043252007 18.0670389859
Fe1 -2.2714313188 5.7645740684 22.5400876365
Fe1 0.3808483668 7.3147299116 13.6111127529
Fe2 0.3857447268 7.2876419165 16.4665179618
Fe2 -2.2284896144 8.7225406551 20.9126926339
Fe2 7.7496885113 5.7283691999 25.5237492287
Fe1 -2.1097145852 8.6215296550 13.8819401878
Fe1 8.0260689320 5.7414738684 18.8434607667
Fe1 0.3725172677 7.0485169337 23.5120653362
Fe2 7.7822914532 5.6465271970 15.6791301129
Fe2 0.3228210335 7.2379994916 20.5517841559
Fe2 -2.0935893972 8.5850438487 25.0500263909
Fe1 2.8430537446 8.7038433393 18.1205637542
Fe1 2.9308796220 5.8263360214 22.6612292077
Fe1 5.4117198228 7.1739207605 13.6949661799
Fe2 5.2962795210 7.2545193681 16.5487748838
Fe2 2.9182050065 8.7206360386 21.0581920603
Fe2 2.7690225905 5.7053335815 25.6451308754
Fe1 2.8533881866 8.7286900417 13.8810883423
Fe1 2.8384387188 5.7679779652 18.7433563031
Fe1 5.3777778985 7.0973944260 23.3365069329
Fe2 2.9129198087 5.7609165654 15.6472936507
Fe2 5.4456594767 7.0954030357 20.3760609500
Fe2 2.8852047888 8.5894646823 25.0956369196
  O         3.5850327093        1.4550806664       14.8328274124
  O         1.1056803012        2.9683955280       19.5033097021
  O         8.6216077006        4.3435873415       24.1617368853
  O         3.7104766921        4.1475404632       14.8751797942
  O         1.0793333179        5.5979832362       19.5405925840
  O         1.1075315975        2.7209689648       24.2237958108
  O         1.3198561251        2.9495513775       14.8601585763
  O        -1.2133933840        4.2599092645       19.5474798996
  O         3.8869969660        1.3773599317       24.1650001911
  O         9.6646583131        2.7610256539       17.1898151199
  O         2.1385248206        4.1836757774       21.8124171469
  O         2.0772907756        4.4925887777       17.3591639231
  O         2.0466640787        1.5425794616       21.7686331631
  O         1.9121210193        1.3920418302       17.3695908818
  O         4.3917059906        2.8629417093       21.9501130928
  O         8.7966353651        1.4058051397       14.8495881354
  O         6.1558909247        2.9181731700       19.5857886829
  O         3.6855135003        4.4554663431       24.2782171377
  O         8.6760235969        4.2644514344       14.7971988790
  O         6.1542281081        5.5659855392       19.5054199392
  O         6.1809206704        2.6959366644       24.2795263562
  O         6.3456405661        2.8395756444       14.8904251124
  O         3.8559190354        4.3040724393       19.5190985542
  O         8.9420036993        1.2821562884       24.1579849372
  O         4.4864213922        2.7816194259       17.1967349242
  O         7.1570843269        4.1006067372       21.8620065733
  O         7.0703492122        4.4348890917       17.1353670139
  O         7.1019295615        1.3949077133       21.9286733135
  O         6.9607850561        1.3819993307       17.2782677736
  O         9.3960341798        2.7250069190       21.7874890143
  O         1.2033073841        5.9250874334       14.8580100940
  O        -1.4855007651        7.3186693663       19.6379428153
  O         6.1424699101        8.6665913617       24.2371340142
  O         1.2667384731        8.7007241936       14.9609002186
  O        -1.3902192343       10.0452952270       19.6288337289
  O        -1.4338128890        7.0723940041       24.0715509162
  O        -1.2529074177        7.2515450136       14.8444341792
  O        -3.6923556345        8.6034076670       19.5677013215
  O         1.4101227522        5.6618342921       24.1825631890
  O         7.0823145970        7.1012742279       17.1645350513
  O        -0.4579752344        8.5313514263       21.7454918492
  O        -0.4542866907        8.7425340347       17.2658775184
  O        -0.5249300182        5.8089361418       21.8082615956
  O        -0.4891212994        5.8352292179       17.2452526378
  O         2.0024532856        7.1256575284       21.8042924771
  O         6.0783072215        5.7618893808       14.8503637947
  O         3.6574039973        7.2881888087       19.7069977691
  O         1.1368581087        8.6349937001       24.2386371378
  O         6.1077535444        8.6316741742       14.8881124528
  O         3.5613315356        9.9232937202       19.5552508268
  O         3.5991592542        7.1100643452       24.1804855462
  O         3.7490964551        7.2777830173       14.9563686889
  O         1.3303669789        8.6404537124       19.6246890975
  O         6.2514542632        5.7506713778       24.2771936079
  O         2.1514782427        7.1205001139       17.3614298161
  O         4.6596041015        8.3810128235       21.9053478863
  O         4.5391705131        8.8007017643       17.2467987258
  O         4.6531553884        5.7384105780       21.9791500818
  O         4.3984638764        5.7989246618       17.3417774695
  O         6.9845198446        7.2455733066       21.7606082264
  H         7.2528304061        5.2944003010       12.9122710869
O_H 7.0185365907 4.3829454756 12.5826417277
  H         4.7395080769        5.4885116951       11.6198924277
O_H 4.5586162031 5.6740273929 12.5833629522
  H         4.4043863224        8.4985264665       11.6518496613
O_H 4.4880845186 8.4882857189 12.6424163574
  H         1.6949152741        9.7971782894       11.7377687618
O_H 2.0862868135 10.0890232247 12.5982751360
  H         1.8707426544        7.2586848395       11.7003248732
O_H 2.0310541081 7.2952475985 12.6471452316
  H         5.0187989075        1.9201901980       12.4041111658
O_H 4.6569223284 2.8671904416 12.4511035460
  H        -4.0032909079       10.0617674179       12.6790418503
O_H -3.0056496489 10.0945467113 12.5947257356
  H        -3.0345823958        7.0951791043       11.6439890536
O_H -3.0071708928 7.1242557663 12.6285952168
  H        -1.1333123253        5.7869660109       12.2935097266
O_H -0.2421887753 5.7808420322 12.6067340914
  H        -0.6101116819        8.8428722641       11.7169370021
O_H -0.5573206180 8.7437544625 12.6717958499
  H        -0.2085412119        3.5060605545       11.5282587271
O_H -0.3891984459 3.1148626177 12.4653581012
  H         2.8409654223        5.2094087140       12.6581710862
O_H 2.1103612777 4.5196951302 12.6254207959
  H         4.6644569687        3.0356506928       27.3687861653
O_H 4.5200140681 2.9211013158 26.4571069331
  H        -0.6113909840        3.0480597501       27.3919903194
O_H -0.5697207258 2.8216710130 26.4063812414
  H         6.7292060369        4.3484788749       27.3318210085
O_H 6.9807318923 4.2564330705 26.4051629381
  H         4.7365289357        6.6420879813       26.5350816163
O_H 4.5491866589 5.6882899855 26.4511449359
  H         2.0832983177        7.4095868389       27.4616138714
O_H 1.9523840240 7.2350756248 26.5334967154
  H         1.9078287245        3.9314158944       27.3995121529
O_H 1.8200499848 4.2077254694 26.4679875417
  H        -0.4093069695        5.7786763812       27.2228219067
O_H -0.5160688244 5.8417365411 26.2753786129
  H        -3.8939941825        7.5022929163       26.0406112924
O_H -2.9930955570 7.3456061336 26.3378297516
  H        -0.0675918241        7.8047247498       26.3782831844
O_H -0.5618391722 8.6433569806 26.4993700043
  H         2.6525309239       10.7938621494       26.4494678204
O_H 2.0731770724 9.9961246613 26.6344768191
  H        -2.6811794515       10.9575360377       26.4427837358
O_H -3.0259909682 10.0782049778 26.5150152521
  H         4.2644489460        8.5879783171       27.4320769475
O_H 4.6317459560 8.4639653499 26.5010264273
HW -3.5797798273 -1.0005911507 38.4963280242
HW -2.5726797691 -0.8269889541 37.2877669932
OW -2.6771563003 -0.6728681677 38.2206807317
HW 3.9424096689 -3.1019467681 56.6069472928
HW 3.5123518020 -2.1295043746 57.8455901221
OW 3.5325423627 -2.2026851589 56.8552261473
HW -3.5222833933 3.3044251159 35.4617587426
HW -4.3954798663 4.7086304589 35.6316243699
OW -4.3550416630 3.8071296320 35.2461572586
HW 7.8227865055 -1.6834877143 29.8194873363
HW 7.5220087230 -2.1431535021 31.2700841292
OW 7.7261088534 -2.4788575402 30.3704984954
HW -14.1794805348 7.8969381942 33.3147855121
HW -13.1404002254 8.5660207885 34.2964838083
OW -13.4678174653 7.7241550026 33.9933287546
HW 3.5982134167 -3.8931886713 42.3943426168
HW 3.9039741190 -4.6060559546 43.6740067837
OW 3.6107930535 -4.8128760802 42.7389449720
HW -1.9293050879 1.9874797515 57.7458625417
HW -1.9232058110 1.0263063530 56.4349635088
OW -2.4319205294 1.7564105537 56.9276946108
HW -0.7563230014 2.3271419880 30.2242973556
HW 0.5633624956 2.4952014639 31.1608770990
OW -0.2723826430 1.9688818306 31.0065428899
HW 1.0717370511 5.3264976921 41.5701732544
HW -0.2359746546 6.2612102656 41.9059847084
OW 0.6968521720 6.0539277108 42.1042222229
HW -1.8241103382 -1.9793627432 44.5032322096
HW -0.9700262654 -0.7946791013 44.0565511514
OW -0.8768987663 -1.7557791092 44.3105042626
HW 1.1017627688 5.6658823134 48.2387158045
HW 0.6751165419 6.6441816609 49.4923377571
OW 1.3583673744 5.9229866163 49.1360373862
HW 3.9475447793 2.5230171278 60.1332224505
HW 2.6330986300 1.9053068226 59.6091059974
OW 3.0716606481 2.7634543049 59.7577746955
HW -2.3674711160 1.2696634782 35.7619113972
HW -1.8367817194 2.4360317887 34.7096687240
OW -2.1096647686 2.1874558221 35.6674498948
HW -1.5575608289 3.4681223217 36.9756940311
HW -1.2093540530 3.3950529081 38.4420868092
OW -1.0920410699 3.9857859642 37.6970216471
HW -4.1228193189 3.1410271578 44.0029308818
HW -2.9677962140 3.3683786564 42.7676876729
OW -3.9236390645 3.2773742601 43.0455269095
HW 3.9140179436 2.6927938110 46.3672901779
HW 2.7447784742 2.0250535853 45.7997442835
OW 2.9891019195 2.5303943836 46.5985520255
HW 4.1168261147 1.5780230840 53.4513595666
HW 5.1391987090 0.8425859094 54.3004247327
OW 5.1254012035 1.5607783279 53.5829021654
HW 0.4947454868 4.4149200164 51.6262418634
HW 0.9298209787 4.6662773354 50.1520975661
OW 0.6986909167 3.9298797444 50.8084827467
HW 2.8658044676 9.2595675751 29.5725662463
HW 2.4742802981 9.3361654178 28.1077525194
OW 2.8608884282 8.6984523639 28.7888208379
HW 0.7556208277 -1.6002412119 38.7704241876
HW 1.1084274264 -0.0378349880 38.3769535847
OW 1.2720454214 -1.0103910764 38.1445441002
HW -3.3050968931 -5.6779271322 54.2192302789
HW -2.7392543039 -5.9030710643 55.6731828912
OW -3.4965360564 -5.5481754946 55.2017627053
HW 18.9805162493 5.9679154815 33.3341126545
HW 17.8265921222 5.8995613318 32.2472541629
OW 18.4463145213 5.3346974746 32.7378674159
HW 2.1288212573 -1.4198619970 56.3073121759
HW 1.8975376474 0.1227829497 56.1989469439
OW 1.3989279103 -0.6935729599 56.2593555986
HW -5.6820680668 5.6877081690 58.0931561339
HW -4.7751240892 4.6499518497 57.3511011577
OW -5.1026089829 4.8824499038 58.2408251247
HW 1.7513386787 3.7188632188 60.3943087567
HW 0.9081354403 4.7610246898 61.3537272953
OW 0.8667809511 4.2183942665 60.4854235281
HW 2.7512440381 4.1487932964 41.1962999242
HW 2.2984253707 4.5162327056 39.7414891222
OW 1.9441538399 4.1629399294 40.6822885818
HW -4.2350984745 3.8494085243 39.5321532151
HW -3.2728433737 2.5068253778 39.4077969883
OW -4.1788361350 2.9198525626 39.2477497420
HW 5.2923506567 -5.0901218692 55.7836592697
HW 3.8120177354 -5.6046193051 56.2698389430
OW 4.2477246544 -4.7810715843 55.9473713492
HW 4.9035061983 -1.8053219150 52.0032876867
HW 4.3016571853 -2.7384421702 53.2011455339
OW 5.1538963543 -2.3481705503 52.8097771079
HW -1.9918575422 0.5409017002 39.0038703526
HW -2.1167588933 0.6979327940 40.4329093864
OW -1.6842379740 1.1594780433 39.6831629776
HW -3.4080405175 8.0868838909 28.1568455793
HW -4.1913817547 8.8050011271 29.3159825578
OW -3.4075133655 8.2697667045 29.1052010296
HW 0.4758828466 4.4010897156 46.2522868414
HW 2.0562737027 4.0399114901 46.7614689477
OW 1.3198816884 4.7416580607 46.6784764266
HW 7.3846027780 -1.6867260479 58.2749359221
HW 8.3130782764 -1.2500930959 57.0694240614
OW 8.3410146316 -1.5416836189 58.0186035622
HW 0.7861060322 5.9560372426 59.5222172403
HW 0.3908226892 7.3153839573 58.8198684029
OW 1.1193590840 6.8142528421 59.2940021255
HW -0.1539574820 -2.3287642978 45.8884327586
HW 1.2322166373 -2.7535348079 46.7554019686
OW 0.2449752472 -2.9249694217 46.6218604215
HW -1.7892386523 -2.0750689985 48.6001776739
HW -0.3469133764 -2.2962366460 48.0668179612
OW -0.8773282101 -1.7685568967 48.7468335278
HW -6.6803110392 -3.9214708590 45.7642346666
HW -6.4329272618 -5.4753215685 45.7564944106
OW -6.1107067863 -4.6253932723 45.4399028183
HW 4.6943068239 5.8928764017 42.8247484792
HW 5.3041203492 4.4300122144 42.4404007727
OW 4.6266302071 5.1574002149 42.1907640549
HW -6.8224119483 2.6143939923 57.8169062126
HW -5.7442776827 2.6979386774 56.5555822037
OW -6.5431133205 2.1927756743 56.9384592859
HW 3.3259988345 -4.1575717044 54.6512118207
HW 2.5090691430 -2.7875622051 54.2331783442
OW 2.9163284537 -3.6067487104 53.8592431871
HW -1.1272630952 8.8880454788 36.4139091195
HW -2.1330840580 7.7205112222 36.8011225227
OW -1.4142364932 7.9216675617 36.2011585059
HW -5.3022972733 2.1583547231 37.6211574107
HW -5.2862766546 2.3731699767 36.1550504302
OW -5.6352633286 1.7505208800 36.7948039389
HW 3.1896075326 1.5513493324 48.0644200893
HW 3.5298399361 1.7008301604 49.6064406142
OW 3.4487088764 1.0670312972 48.8411809119
HW -3.2540677334 -1.4736728034 52.8210685708
HW -2.7994541125 -0.0735514280 52.6581286144
OW -2.5042348565 -0.8978134930 53.1079646091
HW 1.5646894812 5.9641686190 45.3346890936
HW 1.2505286734 6.3828348676 44.0101834224
OW 1.6114250246 6.8040032831 44.8060294637
HW -4.0335470879 6.7623073159 35.3133814083
HW -4.2217491532 6.6907902035 36.8097370627
OW -4.5586874180 6.2420635930 36.0031311463
HW -1.9744912665 1.2858251885 45.5357799472
HW -1.6074587767 1.1861740722 47.1153428625
OW -2.0779296968 1.7427592435 46.3936027506
HW 6.2003449357 0.0040854313 42.2028294928
HW 7.1853118315 -1.1140977061 41.9899824615
OW 7.1469901241 -0.1194478146 42.0415432742
HW -1.1642330286 -1.5022244246 35.6957495363
HW -2.5821181342 -1.5941209688 35.0540883395
OW -2.0667535401 -1.0157697943 35.6381971713
HW -4.8366636592 0.1996203750 46.9856402389
HW -4.5669347580 -0.9763147225 46.0311012127
OW -5.1377409406 -0.1677949636 46.2153795337
HW -1.5771088190 -0.4891333178 54.7437528410
HW -0.2196542316 -0.4952792788 55.6988538236
OW -1.2200715500 -0.3592611061 55.6464409825
HW 0.9165492817 3.1627255300 34.0919548864
HW 0.8981757646 2.9876843137 35.6925529789
OW 0.6445925122 3.5286523985 34.9655313245
HW 2.0779599966 10.5386220996 51.3047475794
HW 0.9321152327 10.0680161036 52.2280148974
OW 1.5453549865 9.7584612521 51.4909991826
HW 3.2289868293 -0.1520095365 29.3106731359
HW 4.2470165098 -0.0779176560 28.1880136206
OW 4.2014646141 -0.0119392872 29.1803268622
HW -0.4618183671 2.8036438796 50.6010652862
HW -0.7479946066 1.9430898966 49.3065127629
OW -1.2248412892 2.3783414783 50.1061532683
HW -0.5602317682 10.1190270031 29.9651855930
HW -0.4095073277 11.6628323543 29.5891561826
OW -0.6772051507 11.0278616975 30.3378213791
HW -1.9619669642 0.7106282647 43.0561505323
HW -0.7819123565 1.5743595616 43.4306466988
OW -1.3113744509 0.8546953393 43.7835247153
HW -2.5767890431 7.4231405286 59.7022699590
HW -2.4876465741 5.7845342982 59.7213327403
OW -2.0659381239 6.6837034585 59.3766914533
HW 2.6989159382 3.4618316755 32.3382275672
HW 1.5943173892 4.5039172845 32.3570865777
OW 1.6812036338 3.5218759375 32.2296330334
HW -3.2910208256 -0.3412680943 32.1882913785
HW -3.6837342218 -1.3667461617 33.4265834026
OW -2.9588393081 -1.0943822504 32.8143271828
HW -5.8368405316 5.5172457223 38.8531864048
HW -5.3011330745 5.5995164991 40.4500761355
OW -5.0436535912 5.7227875237 39.4588112578
HW -7.1011445650 -3.1502591213 47.7981295422
HW -6.8407785582 -1.8278087183 46.9194413015
OW -7.2775330444 -2.6722562201 46.9886110458
HW -5.3011198903 2.1335940325 41.9401586057
HW -5.0196162400 2.0199002023 40.3757307347
OW -5.3453351877 1.4824441940 41.1886350017
HW 7.5548726709 3.7132105498 29.0508870379
HW 8.9702794145 4.2886866281 29.3212498657
OW 8.5052470881 3.4392378470 29.0765903312
HW -3.6570214327 2.7602462920 56.0927094104
HW -4.6651136277 2.9984028006 54.8217738042
OW -4.4805880228 3.2966822210 55.7866068812
HW 3.1136287574 0.5620341216 41.7214314820
HW 1.6369388516 0.5117505435 41.4609182158
OW 2.2969979259 0.1204130702 42.0773435608
HW -3.0378324761 1.7799421744 32.0137719155
HW -4.0680884592 1.3528034931 30.9785686460
OW -3.2336653521 1.0241648317 31.4155586440
HW -9.7728224105 5.4162029110 34.8564529071
HW -10.4302015764 6.9289972002 35.2054835855
OW -9.7507416490 6.4086782777 34.6007860414
HW 0.8900421912 11.0351799044 60.0935997091
HW 0.5269394344 9.7137644751 59.4099343750
OW 0.6206662355 10.1093600226 60.3050076014
HW -2.4818684231 6.9895959030 41.3646111842
HW -1.9345075540 6.0589492958 40.2811335181
OW -1.9935295134 6.1463503024 41.2510019588
HW 2.5935513576 -0.8425126970 51.6213814901
HW 1.1445531813 -1.0972612424 52.1161714838
OW 2.0105727394 -0.7204123331 52.3987971535
HW -6.1154093676 3.5212951783 50.8821351914
HW -7.6756268382 3.4660545122 50.8332642783
OW -6.8194908171 2.9601491776 50.6383136389
HW -3.6846722590 4.5889228403 52.2163239601
HW -4.7903906058 5.3953381599 51.5521117149
OW -4.2859442325 4.4987753474 51.4591938430
HW 1.8662543512 5.4877702143 38.0234571714
HW 2.2633369946 3.8779140070 37.8683645559
OW 2.4927011498 4.8034452684 38.3361128768
HW -0.8909533434 -1.6009462008 50.5576921764
HW -1.1946437006 -1.4771987509 52.1420375629
OW -0.4749756828 -1.6656376205 51.4309787734
HW 5.6790036984 4.3147526655 59.6181224597
HW 6.4795830051 4.1460931388 61.0249855253
OW 6.5406065126 3.9817856843 60.0327023751
HW 4.9750497680 3.3723986535 33.3963038366
HW 4.5979737051 3.0150614605 31.9367937014
OW 4.4245978096 3.6467047066 32.6482981166
HW -9.4148151288 5.7345135150 29.7878605369
HW -10.6342136870 6.7163856450 29.7253720215
OW -10.2265634148 5.9223313132 29.2593016480
HW 1.9878388196 2.0195584900 28.3578463645
HW 2.5253308545 2.9409669195 29.5194178719
OW 1.8529943506 2.8627382931 28.8118966185
HW 5.3789077906 -1.3159934242 54.3490319115
HW 4.9362018232 -1.0210518436 55.8424390609
OW 5.3339092605 -0.5866583331 55.0547561367
HW -5.4214802157 8.9827085998 31.8189957046
HW -6.3091164739 8.0418116383 32.6643208825
OW -5.4116896777 8.1016994336 32.1732052723
HW 4.9784933604 5.1208702124 28.2586872195
HW 5.4637184271 4.9155408852 29.6865491191
OW 5.4159500577 4.4531331990 28.8270813711
HW -2.0410614881 3.2278639026 59.5783753690
HW -0.4605685351 3.3190845954 59.7564166063
OW -1.1896702907 2.8224978955 59.2859874073
HW -1.3171924604 2.5866681149 32.4674289253
HW -2.0128117541 3.7630850892 33.1716112623
OW -2.0197104065 2.7795856978 33.1291034514
HW -4.4817672526 -0.0739385418 50.4389411457
HW -5.8389803589 -0.3139137368 49.6571602199
OW -5.2097052594 -0.7955224078 50.2515005068
HW 2.7669544052 2.0741547236 37.2522212711
HW 1.4894907797 2.0356555588 38.2157619914
OW 1.8715899278 2.3944117642 37.4456560160
HW 6.0618097578 0.6164091621 57.6412111355
HW 4.5276912665 0.9113808363 57.5866613663
OW 5.1899634506 0.3271317775 58.0157215630
HW -5.0371460744 5.2767745609 31.9455488653
HW -4.7872219115 6.6871308539 31.2207706820
OW -4.4357463486 5.7555605425 31.3601780346
HW -0.0811338969 1.6322467385 39.8980565568
HW 1.2474815493 2.4354725549 40.4413975136
OW 0.9544363316 1.6463989519 39.9997758373
HW 0.9140909199 0.1653421075 59.9894845254
HW 2.1944293626 0.6976627424 61.0728854447
OW 1.9062235935 0.3198538648 60.2012633067
HW -6.0252378500 8.3065735438 59.0478794216
HW -6.0492657332 9.8686385147 59.6061020624
OW -5.7976894178 8.9437617236 59.8124026705
HW -0.6613473475 5.4917938516 38.0622123813
HW -0.2647483757 6.8357488564 37.4812996752
OW -0.1366568217 6.3014575544 38.2786158435
HW 1.6980922559 -4.1631104535 49.6900147508
HW 3.0774335741 -5.0523963167 49.3442475060
OW 2.4298439852 -4.2950420892 49.0704963030
HW 2.7758227532 2.1892829907 51.9893999208
HW 2.0926027146 1.1115979337 52.6707539809
OW 2.4833478312 1.9480913019 52.8555714015
HW 0.6754448653 0.7410551308 47.7474443141
HW -0.4185875316 -0.0969319464 48.4454721511
OW -0.2545152891 0.8537137838 48.0953389880
HW 1.1410231796 -6.1836003851 46.1317119624
HW 0.3743302171 -4.7655525984 45.9325899063
OW 0.4493821073 -5.6767293405 45.6188061973
HW 3.3874716289 0.1609258882 44.9705752991
HW 2.3570214037 0.5274404643 43.8096120039
OW 2.5575388691 0.7043136919 44.8027012848
     447
 i =     2001, time =     2001.000, E =     -8960.9630044397
Fe1 0.3380336563 4.2990958635 18.0388541480
Fe1 10.4574416228 1.2878609888 22.5457623405
Fe1 2.8499872084 2.9232436515 13.2755856054
Fe2 2.7501623533 2.9070491873 16.5248475960
Fe2 0.4070849096 4.2635270509 21.0015709141
Fe2 10.4924987935 1.2974460909 25.5191950247
Fe1 0.4158659399 4.3617965187 13.8564820623
Fe1 10.2834521211 1.3762609154 18.6311149282
Fe1 2.8811300598 2.9425829769 23.4545408373
Fe2 10.4662558682 1.5137623277 15.5908986576
Fe2 2.8233489570 2.9216324468 20.3284135888
Fe2 0.2155028761 4.2358747245 25.1574251628
Fe1 5.4803256528 4.2889530023 18.0855945845
Fe1 5.2880961347 1.2693967981 22.6104794851
Fe1 8.0232446287 2.8489505438 13.4063014122
Fe2 7.8802783299 2.8144311308 16.4744864964
Fe2 5.3745160775 4.1221162375 21.0469512363
Fe2 5.3633779040 1.3278522929 25.7512398936
Fe1 5.4168579756 4.1490888051 13.8711500390
Fe1 5.3786446712 1.3191337426 18.8315191866
Fe1 7.8617357006 2.6958647956 23.4725806852
Fe2 5.2507492543 1.4408333730 15.6990764470
Fe2 7.8750601939 2.8380621644 20.4640940391
Fe2 5.4398748911 4.2389432165 25.0416883944
Fe1 -2.2289410633 8.6039694102 18.0669443510
Fe1 -2.2749315693 5.7649176828 22.5402421668
Fe1 0.3769736181 7.3157708544 13.6104083723
Fe2 0.3850801820 7.2866473838 16.4701225508
Fe2 -2.2283211509 8.7241975613 20.9127393783
Fe2 7.7538521601 5.7244408024 25.5288283511
Fe1 -2.1108363383 8.6221200540 13.8796603289
Fe1 8.0254057120 5.7413198132 18.8447397806
Fe1 0.3716680772 7.0487442553 23.5097629744
Fe2 7.7799907735 5.6466905839 15.6786619308
Fe2 0.3237101434 7.2356166860 20.5525711091
Fe2 -2.0941008844 8.5866546182 25.0501138465
Fe1 2.8437093770 8.7058717139 18.1226380470
Fe1 2.9300193518 5.8261872596 22.6593867924
Fe1 5.4101502959 7.1752931286 13.6965142991
Fe2 5.2968193696 7.2513419909 16.5511336541
Fe2 2.9187938836 8.7228746511 21.0551430037
Fe2 2.7706421725 5.7029464093 25.6484049363
Fe1 2.8534800805 8.7311868618 13.8796480127
Fe1 2.8426779725 5.7714377812 18.7477505159
Fe1 5.3796996988 7.0972141131 23.3345507333
Fe2 2.9145978371 5.7571857987 15.6492793833
Fe2 5.4442543972 7.0956042076 20.3749669957
Fe2 2.8816709322 8.5886447246 25.0973171745
  O         3.5862874845        1.4571128887       14.8380865953
  O         1.1066369527        2.9704564552       19.4936352528
  O         8.6261485418        4.3412198696       24.1632501974
  O         3.7138351632        4.1501225739       14.8815628468
  O         1.0870703942        5.5982326908       19.5396954699
  O         1.1132244076        2.7312375016       24.2218765892
  O         1.3175050894        2.9496246485       14.8664989807
  O        -1.2148684379        4.2591900526       19.5512688936
  O         3.8939965119        1.3841854228       24.1666912239
  O         9.6639923431        2.7560064534       17.1931334690
  O         2.1382232270        4.1750384740       21.8142629127
  O         2.0723351138        4.4936639390       17.3510234010
  O         2.0475551417        1.5387711269       21.7673228467
  O         1.9132829531        1.3910014692       17.3668348936
  O         4.3879089511        2.8568764545       21.9506742220
  O         8.7943616355        1.4088952764       14.8550709323
  O         6.1648638286        2.9206869028       19.5856886195
  O         3.6892268680        4.4525555641       24.2756977830
  O         8.6699421693        4.2698000395       14.7925618514
  O         6.1616738230        5.5695136439       19.5030954907
  O         6.1833771582        2.6991883384       24.2777775937
  O         6.3457430932        2.8426199898       14.8934818322
  O         3.8518538319        4.2986732608       19.5193953585
  O         8.9393548518        1.2882812191       24.1577816282
  O         4.4831987895        2.7800917456       17.1956909067
  O         7.1608954220        4.0942687440       21.8597007666
  O         7.0694900590        4.4327983569       17.1381583341
  O         7.1067945058        1.3965941115       21.9287427069
  O         6.9531404837        1.3822355743       17.2825491937
  O         9.3971363847        2.7211986995       21.7872519911
  O         1.2054286086        5.9257177549       14.8490074770
  O        -1.4875758574        7.3281447440       19.6407016235
  O         6.1480039886        8.6660505867       24.2337155416
  O         1.2526362739        8.7046609208       14.9652728941
  O        -1.3826458317       10.0468568818       19.6179308388
  O        -1.4386382545        7.0723382259       24.0669220554
  O        -1.2484825137        7.2554054536       14.8426947123
  O        -3.6963784495        8.5996248510       19.5739123166
  O         1.4108701943        5.6646132386       24.1808990846
  O         7.0790222881        7.0986807577       17.1606443288
  O        -0.4575427995        8.5308076230       21.7481056775
  O        -0.4484072421        8.7382618190       17.2613060160
  O        -0.5278629914        5.7997838849       21.8048970525
  O        -0.4888698029        5.8401923644       17.2396790612
  O         2.0007852464        7.1271408014       21.8071435520
  O         6.0764606622        5.7639743056       14.8530930412
  O         3.6637703523        7.2884229052       19.7032602113
  O         1.1352641106        8.6324472026       24.2332106489
  O         6.1047855139        8.6334332568       14.8905818038
  O         3.5644622127        9.9275687707       19.5565812442
  O         3.6026740694        7.1065095001       24.1855463479
  O         3.7512597758        7.2850997027       14.9518019974
  O         1.3356653520        8.6396545915       19.6220445612
  O         6.2485060514        5.7525863546       24.2785034052
  O         2.1511383637        7.1149181453       17.3684864634
  O         4.6628694997        8.3826700930       21.9024892240
  O         4.5341090279        8.8003799808       17.2416669925
  O         4.6574077291        5.7409988186       21.9837330059
  O         4.4070238047        5.7990457481       17.3453133898
  O         6.9896546067        7.2428143563       21.7664945494
  H         7.2788506766        5.2616622269       12.9185246013
O_H 7.0173550302 4.3874527987 12.5823853782
  H         4.7399749023        5.5067578969       11.6363073230
O_H 4.5628402122 5.6776533420 12.5860241416
  H         4.4364303553        8.4853798477       11.6746204888
O_H 4.4919749918 8.4910968904 12.6456909750
  H         1.6783953056        9.7898198872       11.7305891840
O_H 2.0952563955 10.0849780840 12.5989184901
  H         1.8839223267        7.2648770824       11.6902598616
O_H 2.0345354874 7.2949522921 12.6452355109
  H         5.0086279223        1.9475688685       12.4038928469
O_H 4.6548342309 2.8589922648 12.4512086881
  H        -4.0173347916       10.0735399090       12.6685168998
O_H -3.0095968106 10.0946832267 12.5947416718
  H        -3.0363298695        7.1069663828       11.6532810872
O_H -3.0099573611 7.1255937323 12.6252676631
  H        -1.1116287459        5.7955052580       12.2866380162
O_H -0.2428461536 5.7752636116 12.6055953444
  H        -0.6285529232        8.8509431737       11.7223593493
O_H -0.5578148865 8.7404906893 12.6800755661
  H        -0.2295925568        3.5132589976       11.5196810712
O_H -0.3889891495 3.1185452086 12.4629637783
  H         2.8397799578        5.1979736149       12.6572859031
O_H 2.1043920341 4.5259528298 12.6303020300
  H         4.6413563777        3.0544685312       27.3719943909
O_H 4.5210249996 2.9231587857 26.4478392961
  H        -0.5987190101        3.0630082621       27.3946974495
O_H -0.5677358131 2.8206170358 26.4061448599
  H         6.7175269590        4.3610880577       27.3372932400
O_H 6.9848070382 4.2603072490 26.4010154320
  H         4.7532774835        6.6518561767       26.5923184617
O_H 4.5486083798 5.6828789243 26.4528167144
  H         2.0649060959        7.3861582045       27.4716009658
O_H 1.9511339505 7.2305660713 26.5327859512
  H         1.8858072993        3.9791779898       27.3710566651
O_H 1.8307013245 4.2097876530 26.4585762350
  H        -0.4196207855        5.7938238676       27.2501271043
O_H -0.5217798361 5.8359709254 26.2767805824
  H        -3.8909566097        7.5110988994       26.0498024782
O_H -2.9936468236 7.3423744307 26.3304870998
  H        -0.0627107234        7.8087671038       26.3647594740
O_H -0.5635659798 8.6443499332 26.5020824951
  H         2.6380545676       10.7998023399       26.4301962686
O_H 2.0731438145 9.9911849881 26.6354178502